       5
 i =        4, time = 10, E =        -8.0633022872
  C         5.0000000000        5.0000000000        5.0000000000
  H         5.6401052216        5.6401052216        5.6401052216
  H         4.3598947806        4.3598947806        5.6401052208
  H         4.3598947806        5.6401052208        4.3598947806
  H         5.6401052208        4.3598947806        4.3598947806
       5
 i =        3, time = 9, E =        -8.0633022874
  C         5.0000000000        5.0000000000        5.0000000000
  H         5.6401902064        5.6401902064        5.6401902064
  H         4.3598097942        4.3598097942        5.6401902063
  H         4.3598097942        5.6401902063        4.3598097942
  H         5.6401902063        4.3598097942        4.3598097942
       5
 i =        4, time = 10, E =        -8.0632890314
  C         5.0000000000        5.0000000000        5.0000000000
  H         5.6401902064        5.6401902064        5.6401902064
  H         4.3598097942        4.3598097942        5.6401902063
  H         4.3598097942        5.6401902063        4.3598097942
  H         5.6401902063        4.3598097942        4.3598097942
