 DBCSR| Multiplication driver                                                SMM
 DBCSR| Multrec recursion limit                                              512
 DBCSR| Multiplication stack size                                           1000
 DBCSR| Multiplication size stacks                                             3


  **** **** ******  **  PROGRAM STARTED AT               2015-07-27 10:41:01.390
 ***** ** ***  *** **   PROGRAM STARTED ON                                tcpc18
 **    ****   ******    PROGRAM STARTED BY                               tiziano
 ***** **    ** ** **   PROGRAM PROCESS ID                                 14665
  **** **  *******  **  PROGRAM STARTED IN /data/tiziano/simulations/benchmark-t
                                           emplate/thiophene

 CP2K| version string:                                          CP2K version 2.6
 CP2K| source code revision number:                                    svn:14880
 CP2K| is freely available from                             http://www.cp2k.org/
 CP2K| Program compiled at                          Thu Feb 19 09:43:02 CET 2015
 CP2K| Program compiled on                                                tcopt5
 CP2K| Program compiled for                           Linux_gnu-4.9.2_mkl-11.2.1
 CP2K| Input file name                                        C4H4S_dft-only.inp

 GLOBAL| Force Environment number                                              1
 GLOBAL| Basis set file name                                   ../GTH_BASIS_SETS
 GLOBAL| Geminal file name                                         BASIS_GEMINAL
 GLOBAL| Potential file name                                        ../POTENTIAL
 GLOBAL| MM Potential file name                                     MM_POTENTIAL
 GLOBAL| Coordinate file name                                        ./struc.xyz
 GLOBAL| Method name                                                        CP2K
 GLOBAL| Project name                                                  thiophene
 GLOBAL| Preferred FFT library                                             FFTW3
 GLOBAL| Preferred diagonalization lib.                                       SL
 GLOBAL| Run type                                                         ENERGY
 GLOBAL| All-to-all communication in single precision                          F
 GLOBAL| FFTs using library dependent lengths                                  F
 GLOBAL| Global print level                                               MEDIUM
 GLOBAL| Total number of message passing processes                             1
 GLOBAL| Number of threads for this process                                    8
 GLOBAL| This output is from process                                           0

 MEMORY| system memory details [Kb]
 MEMORY|                        rank 0           min           max       average
 MEMORY| MemTotal             16421028      16421028      16421028      16421028
 MEMORY| MemFree               6644208       6644208       6644208       6644208
 MEMORY| Buffers                254984        254984        254984        254984
 MEMORY| Cached                4823764       4823764       4823764       4823764
 MEMORY| Slab                   351308        351308        351308        351308
 MEMORY| SReclaimable           289456        289456        289456        289456
 MEMORY| MemLikelyFree        12012412      12012412      12012412      12012412


 *** Fundamental physical constants (SI units) ***

 *** Literature: B. J. Mohr and B. N. Taylor,
 ***             CODATA recommended values of the fundamental physical
 ***             constants: 2006, Web Version 5.1
 ***             http://physics.nist.gov/constants

 Speed of light in vacuum [m/s]                             2.99792458000000E+08
 Magnetic constant or permeability of vacuum [N/A**2]       1.25663706143592E-06
 Electric constant or permittivity of vacuum [F/m]          8.85418781762039E-12
 Planck constant (h) [J*s]                                  6.62606896000000E-34
 Planck constant (h-bar) [J*s]                              1.05457162825177E-34
 Elementary charge [C]                                      1.60217648700000E-19
 Electron mass [kg]                                         9.10938215000000E-31
 Electron g factor [ ]                                     -2.00231930436220E+00
 Proton mass [kg]                                           1.67262163700000E-27
 Fine-structure constant                                    7.29735253760000E-03
 Rydberg constant [1/m]                                     1.09737315685270E+07
 Avogadro constant [1/mol]                                  6.02214179000000E+23
 Boltzmann constant [J/K]                                   1.38065040000000E-23
 Atomic mass unit [kg]                                      1.66053878200000E-27
 Bohr radius [m]                                            5.29177208590000E-11

 *** Conversion factors ***

 [u] -> [a.u.]                                              1.82288848426455E+03
 [Angstrom] -> [Bohr] = [a.u.]                              1.88972613288564E+00
 [a.u.] = [Bohr] -> [Angstrom]                              5.29177208590000E-01
 [a.u.] -> [s]                                              2.41888432650478E-17
 [a.u.] -> [fs]                                             2.41888432650478E-02
 [a.u.] -> [J]                                              4.35974393937059E-18
 [a.u.] -> [N]                                              8.23872205491840E-08
 [a.u.] -> [K]                                              3.15774647902944E+05
 [a.u.] -> [kJ/mol]                                         2.62549961709828E+03
 [a.u.] -> [kcal/mol]                                       6.27509468713739E+02
 [a.u.] -> [Pa]                                             2.94210107994716E+13
 [a.u.] -> [bar]                                            2.94210107994716E+08
 [a.u.] -> [atm]                                            2.90362800883016E+08
 [a.u.] -> [eV]                                             2.72113838565563E+01
 [a.u.] -> [Hz]                                             6.57968392072181E+15
 [a.u.] -> [1/cm] (wave numbers)                            2.19474631370540E+05
 [a.u./Bohr**2] -> [1/cm]                                   5.14048714338585E+03
 

 CELL_TOP| Volume [angstrom^3]:                                         1999.079
 CELL_TOP| Vector a [angstrom    12.029     0.000     0.000    |a| =      12.029
 CELL_TOP| Vector b [angstrom     0.000    15.133     0.000    |b| =      15.133
 CELL_TOP| Vector c [angstrom     0.000     0.000    10.982    |c| =      10.982
 CELL_TOP| Angle (b,c), alpha [degree]:                                   90.000
 CELL_TOP| Angle (a,c), beta  [degree]:                                   90.000
 CELL_TOP| Angle (a,b), gamma [degree]:                                   90.000
 CELL_TOP| Numerically orthorhombic:                                         YES

 GENERATE|  Preliminary Number of Bonds generated:                             0
 GENERATE|  Achieved consistency in connectivity generation.

 CELL| Volume [angstrom^3]:                                             1999.079
 CELL| Vector a [angstrom]:      12.029     0.000     0.000    |a| =      12.029
 CELL| Vector b [angstrom]:       0.000    15.133     0.000    |b| =      15.133
 CELL| Vector c [angstrom]:       0.000     0.000    10.982    |c| =      10.982
 CELL| Angle (b,c), alpha [degree]:                                       90.000
 CELL| Angle (a,c), beta  [degree]:                                       90.000
 CELL| Angle (a,b), gamma [degree]:                                       90.000
 CELL| Numerically orthorhombic:                                             YES

 CELL_REF| Volume [angstrom^3]:                                         1999.079
 CELL_REF| Vector a [angstrom    12.029     0.000     0.000    |a| =      12.029
 CELL_REF| Vector b [angstrom     0.000    15.133     0.000    |b| =      15.133
 CELL_REF| Vector c [angstrom     0.000     0.000    10.982    |c| =      10.982
 CELL_REF| Angle (b,c), alpha [degree]:                                   90.000
 CELL_REF| Angle (a,c), beta  [degree]:                                   90.000
 CELL_REF| Angle (a,b), gamma [degree]:                                   90.000
 CELL_REF| Numerically orthorhombic:                                         YES

 *******************************************************************************
 *******************************************************************************
 **                                                                           **
 **     #####                         ##              ##                      **
 **    ##   ##            ##          ##              ##                      **
 **   ##     ##                       ##            ######                    **
 **   ##     ##  ##   ##  ##   #####  ##  ##   ####   ##    #####    #####    **
 **   ##     ##  ##   ##  ##  ##      ## ##   ##      ##   ##   ##  ##   ##   **
 **   ##  ## ##  ##   ##  ##  ##      ####     ###    ##   ######   ######    **
 **    ##  ###   ##   ##  ##  ##      ## ##      ##   ##   ##       ##        **
 **     #######   #####   ##   #####  ##  ##  ####    ##    #####   ##        **
 **           ##                                                    ##        **
 **                                                                           **
 **                                                ... make the atoms dance   **
 **                                                                           **
 **            Copyright (C) by CP2K Developers Group (2000 - 2014)           **
 **                                                                           **
 *******************************************************************************

 DFT| Spin unrestricted (spin-polarized) Kohn-Sham calculation               UKS
 DFT| Multiplicity                                                             1
 DFT| Number of spin states                                                    2
 DFT| Charge                                                                   0
 DFT| Self-interaction correction (SIC)                     Explicit Orbital SIC
 DFT| SIC scaling parameter a                                       2.000000E-01
 DFT| SIC scaling parameter b                                       2.000000E-01
 DFT| SIC orbitals                                               ALL
 DFT| Cutoffs: density                                              1.000000E-10
 DFT|          gradient                                             1.000000E-10
 DFT|          tau                                                  1.000000E-10
 DFT|          cutoff_smoothing_range                               0.000000E+00
 DFT| XC density smoothing                                                  NONE
 DFT| XC derivatives                                                          PW
 FUNCTIONAL| ROUTINE=NEW
 FUNCTIONAL| PBE:
 FUNCTIONAL| J.P.Perdew, K.Burke, M.Ernzerhof, Phys. Rev. Letter, vol. 77, n 18,
 FUNCTIONAL|  pp. 3865-3868, (1996){spin polarized}

 QS| Method:                                                                 GPW
 QS| Density plane wave grid type                        NON-SPHERICAL FULLSPACE
 QS| Number of grid levels:                                                    4
 QS| Density cutoff [a.u.]:                                                400.0
 QS| Multi grid cutoff [a.u.]: 1) grid level                               400.0
 QS|                           2) grid level                               133.3
 QS|                           3) grid level                                44.4
 QS|                           4) grid level                                14.8
 QS| Grid level progression factor:                                          3.0
 QS| Relative density cutoff [a.u.]:                                        30.0
 QS| Consistent realspace mapping and integration 
 QS| Interaction thresholds: eps_pgf_orb:                                1.0E-30
 QS|                         eps_filter_matrix:                          0.0E+00
 QS|                         eps_core_charge:                            1.0E-17
 QS|                         eps_rho_gspace:                             1.0E-15
 QS|                         eps_rho_rspace:                             1.0E-15
 QS|                         eps_gvg_rspace:                             3.2E-08
 QS|                         eps_ppl:                                    1.0E-02
 QS|                         eps_ppnl:                                   3.2E-10


 ATOMIC KIND INFORMATION

  1. Atomic kind: S                                     Number of atoms:       1

     Orbital Basis Set                                                 TZV2P-GTH

       Number of orbital shell sets:                                           2
       Number of orbital shells:                                               8
       Number of primitive Cartesian functions:                                7
       Number of Cartesian basis functions:                                   24
       Number of spherical basis functions:                                   22
       Norm type:                                                              2

       Normalised Cartesian orbitals:

                        Set   Shell   Orbital            Exponent    Coefficient

                          1       1    3s                2.977594      -0.110522
                                                         2.019087       0.494350
                                                         0.643941      -0.174361
                                                         0.250199      -0.187210
                                                         0.089165      -0.017679

                          1       2    4s                2.977594       0.000000
                                                         2.019087       0.000000
                                                         0.643941       0.000000
                                                         0.250199       0.252130
                                                         0.089165       0.000000

                          1       3    5s                2.977594       0.000000
                                                         2.019087       0.000000
                                                         0.643941       0.000000
                                                         0.250199       0.000000
                                                         0.089165       0.116294

                          1       4    4px               2.977594       0.291303
                                                         2.019087      -0.079637
                                                         0.643941      -0.284474
                                                         0.250199      -0.129687
                                                         0.089165      -0.019473
                          1       4    4py               2.977594       0.291303
                                                         2.019087      -0.079637
                                                         0.643941      -0.284474
                                                         0.250199      -0.129687
                                                         0.089165      -0.019473
                          1       4    4pz               2.977594       0.291303
                                                         2.019087      -0.079637
                                                         0.643941      -0.284474
                                                         0.250199      -0.129687
                                                         0.089165      -0.019473

                          1       5    5px               2.977594       0.000000
                                                         2.019087       0.000000
                                                         0.643941       0.000000
                                                         0.250199       0.252230
                                                         0.089165       0.000000
                          1       5    5py               2.977594       0.000000
                                                         2.019087       0.000000
                                                         0.643941       0.000000
                                                         0.250199       0.252230
                                                         0.089165       0.000000
                          1       5    5pz               2.977594       0.000000
                                                         2.019087       0.000000
                                                         0.643941       0.000000
                                                         0.250199       0.252230
                                                         0.089165       0.000000

                          1       6    6px               2.977594       0.000000
                                                         2.019087       0.000000
                                                         0.643941       0.000000
                                                         0.250199       0.000000
                                                         0.089165       0.069452
                          1       6    6py               2.977594       0.000000
                                                         2.019087       0.000000
                                                         0.643941       0.000000
                                                         0.250199       0.000000
                                                         0.089165       0.069452
                          1       6    6pz               2.977594       0.000000
                                                         2.019087       0.000000
                                                         0.643941       0.000000
                                                         0.250199       0.000000
                                                         0.089165       0.069452

                          2       1    3dx2              0.819000       1.160530
                                                         0.269000       0.000000
                          2       1    3dxy              0.819000       2.010097
                                                         0.269000       0.000000
                          2       1    3dxz              0.819000       2.010097
                                                         0.269000       0.000000
                          2       1    3dy2              0.819000       1.160530
                                                         0.269000       0.000000
                          2       1    3dyz              0.819000       2.010097
                                                         0.269000       0.000000
                          2       1    3dz2              0.819000       1.160530
                                                         0.269000       0.000000

                          2       2    4dx2              0.819000       0.000000
                                                         0.269000       0.165377
                          2       2    4dxy              0.819000       0.000000
                                                         0.269000       0.286442
                          2       2    4dxz              0.819000       0.000000
                                                         0.269000       0.286442
                          2       2    4dy2              0.819000       0.000000
                                                         0.269000       0.165377
                          2       2    4dyz              0.819000       0.000000
                                                         0.269000       0.286442
                          2       2    4dz2              0.819000       0.000000
                                                         0.269000       0.165377

     Potential information for                                           GTH-PBE

       Description:                       Goedecker-Teter-Hutter pseudopotential
                                           Goedecker et al., PRB 54, 1703 (1996)
                                          Hartwigsen et al., PRB 58, 3641 (1998)
                                                      Krack, TCA 114, 145 (2005)

       Gaussian exponent of the core charge distribution:               2.834467
       Electronic configuration (s p d ...):                               2   4

       Parameters of the local part of the GTH pseudopotential:

                          rloc        C1          C2          C3          C4
                        0.420000   -5.986260

       Parameters of the non-local part of the GTH pseudopotential:

                   l      r(l)      h(i,j,l)

                   0    0.364820   13.143544   -4.241830
                                   -4.241830    5.476180
                   1    0.409480    3.700891

  2. Atomic kind: C                                     Number of atoms:       4

     Orbital Basis Set                                                 TZV2P-GTH

       Number of orbital shell sets:                                           2
       Number of orbital shells:                                               8
       Number of primitive Cartesian functions:                                7
       Number of Cartesian basis functions:                                   24
       Number of spherical basis functions:                                   22
       Norm type:                                                              2

       Normalised Cartesian orbitals:

                        Set   Shell   Orbital            Exponent    Coefficient

                          1       1    2s                5.368566       0.245056
                                                         1.983069       0.124102
                                                         0.697835      -0.198350
                                                         0.243097      -0.156359
                                                         0.081287      -0.018192

                          1       2    3s                5.368566       0.000000
                                                         1.983069       0.000000
                                                         0.697835       0.000000
                                                         0.243097       0.246743
                                                         0.081287       0.000000

                          1       3    4s                5.368566       0.000000
                                                         1.983069       0.000000
                                                         0.697835       0.000000
                                                         0.243097       0.000000
                                                         0.081287       0.108499

                          1       4    3px               5.368566      -0.595193
                                                         1.983069      -0.567909
                                                         0.697835      -0.325466
                                                         0.243097      -0.105296
                                                         0.081287      -0.015205
                          1       4    3py               5.368566      -0.595193
                                                         1.983069      -0.567909
                                                         0.697835      -0.325466
                                                         0.243097      -0.105296
                                                         0.081287      -0.015205
                          1       4    3pz               5.368566      -0.595193
                                                         1.983069      -0.567909
                                                         0.697835      -0.325466
                                                         0.243097      -0.105296
                                                         0.081287      -0.015205

                          1       5    4px               5.368566       0.000000
                                                         1.983069       0.000000
                                                         0.697835       0.000000
                                                         0.243097       0.243312
                                                         0.081287       0.000000
                          1       5    4py               5.368566       0.000000
                                                         1.983069       0.000000
                                                         0.697835       0.000000
                                                         0.243097       0.243312
                                                         0.081287       0.000000
                          1       5    4pz               5.368566       0.000000
                                                         1.983069       0.000000
                                                         0.697835       0.000000
                                                         0.243097       0.243312
                                                         0.081287       0.000000

                          1       6    5px               5.368566       0.000000
                                                         1.983069       0.000000
                                                         0.697835       0.000000
                                                         0.243097       0.000000
                                                         0.081287       0.061868
                          1       6    5py               5.368566       0.000000
                                                         1.983069       0.000000
                                                         0.697835       0.000000
                                                         0.243097       0.000000
                                                         0.081287       0.061868
                          1       6    5pz               5.368566       0.000000
                                                         1.983069       0.000000
                                                         0.697835       0.000000
                                                         0.243097       0.000000
                                                         0.081287       0.061868

                          2       1    3dx2              1.097000       1.935401
                                                         0.318000       0.000000
                          2       1    3dxy              1.097000       3.352214
                                                         0.318000       0.000000
                          2       1    3dxz              1.097000       3.352214
                                                         0.318000       0.000000
                          2       1    3dy2              1.097000       1.935401
                                                         0.318000       0.000000
                          2       1    3dyz              1.097000       3.352214
                                                         0.318000       0.000000
                          2       1    3dz2              1.097000       1.935401
                                                         0.318000       0.000000

                          2       2    4dx2              1.097000       0.000000
                                                         0.318000       0.221644
                          2       2    4dxy              1.097000       0.000000
                                                         0.318000       0.383899
                          2       2    4dxz              1.097000       0.000000
                                                         0.318000       0.383899
                          2       2    4dy2              1.097000       0.000000
                                                         0.318000       0.221644
                          2       2    4dyz              1.097000       0.000000
                                                         0.318000       0.383899
                          2       2    4dz2              1.097000       0.000000
                                                         0.318000       0.221644

     Potential information for                                           GTH-PBE

       Description:                       Goedecker-Teter-Hutter pseudopotential
                                           Goedecker et al., PRB 54, 1703 (1996)
                                          Hartwigsen et al., PRB 58, 3641 (1998)
                                                      Krack, TCA 114, 145 (2005)

       Gaussian exponent of the core charge distribution:               4.364419
       Electronic configuration (s p d ...):                               2   2

       Parameters of the local part of the GTH pseudopotential:

                          rloc        C1          C2          C3          C4
                        0.338471   -8.803674    1.339211

       Parameters of the non-local part of the GTH pseudopotential:

                   l      r(l)      h(i,j,l)

                   0    0.302576    9.622487
                   1    0.291507

  3. Atomic kind: H                                     Number of atoms:       4

     Orbital Basis Set                                                 TZV2P-GTH

       Number of orbital shell sets:                                           2
       Number of orbital shells:                                               5
       Number of primitive Cartesian functions:                                7
       Number of Cartesian basis functions:                                    9
       Number of spherical basis functions:                                    9
       Norm type:                                                              2

       Normalised Cartesian orbitals:

                        Set   Shell   Orbital            Exponent    Coefficient

                          1       1    1s               10.882724      -0.071340
                                                         3.096875      -0.104410
                                                         0.987452      -0.135375
                                                         0.345069      -0.133923
                                                         0.149269      -0.073092

                          1       2    2s               10.882724       0.000000
                                                         3.096875       0.000000
                                                         0.987452       0.000000
                                                         0.345069       0.320878
                                                         0.149269       0.000000

                          1       3    3s               10.882724       0.000000
                                                         3.096875       0.000000
                                                         0.987452       0.000000
                                                         0.345069       0.000000
                                                         0.149269       0.171154

                          2       1    2px               1.407000       2.184277
                                                         0.388000       0.000000
                          2       1    2py               1.407000       2.184277
                                                         0.388000       0.000000
                          2       1    2pz               1.407000       2.184277
                                                         0.388000       0.000000

                          2       2    3px               1.407000       0.000000
                                                         0.388000       0.436495
                          2       2    3py               1.407000       0.000000
                                                         0.388000       0.436495
                          2       2    3pz               1.407000       0.000000
                                                         0.388000       0.436495

     Potential information for                                           GTH-PBE

       Description:                       Goedecker-Teter-Hutter pseudopotential
                                           Goedecker et al., PRB 54, 1703 (1996)
                                          Hartwigsen et al., PRB 58, 3641 (1998)
                                                      Krack, TCA 114, 145 (2005)

       Gaussian exponent of the core charge distribution:              12.500000
       Electronic configuration (s p d ...):                                   1

       Parameters of the local part of the GTH pseudopotential:

                          rloc        C1          C2          C3          C4
                        0.200000   -4.178900    0.724463


 MOLECULE KIND INFORMATION


 All atoms are their own molecule, skipping detailed information


 TOTAL NUMBERS AND MAXIMUM NUMBERS

  Total number of            - Atomic kinds:                                   3
                             - Atoms:                                          9
                             - Shell sets:                                    18
                             - Shells:                                        60
                             - Primitive Cartesian functions:                 63
                             - Cartesian basis functions:                    156
                             - Spherical basis functions:                    146

  Maximum angular momentum of- Orbital basis functions:                        2
                             - Local part of the GTH pseudopotential:          2
                             - Non-local part of the GTH pseudopotential:      2


 MODULE QUICKSTEP:  ATOMIC COORDINATES IN angstrom

  Atom  Kind  Element       X           Y           Z          Z(eff)       Mass

       1     1 S   16    6.014635    7.566518    7.182010      6.00      32.0650
       2     2 C    6    6.014639    8.813513    5.970991      4.00      12.0107
       3     2 C    6    6.014639    6.319522    5.970991      4.00      12.0107
       4     2 C    6    6.014640    8.280266    4.702917      4.00      12.0107
       5     2 C    6    6.014640    6.852770    4.702918      4.00      12.0107
       6     3 H    1    6.014636    9.856791    6.275067      1.00       1.0079
       7     3 H    1    6.014636    5.276246    6.275068      1.00       1.0079
       8     3 H    1    6.014638    8.889342    3.799559      1.00       1.0079
       9     3 H    1    6.014638    6.243693    3.799559      1.00       1.0079




 SCF PARAMETERS         Density guess:                                   RESTART
                        --------------------------------------------------------
                        max_scf:                                             100
                        max_scf_history:                                       0
                        max_diis:                                              4
                        --------------------------------------------------------
                        eps_scf:                                        1.00E-05
                        eps_scf_history:                                0.00E+00
                        eps_diis:                                       1.00E-01
                        eps_eigval:                                     1.00E-05
                        --------------------------------------------------------
                        level_shift [a.u.]:                                 0.00
                        added MOs                                         3    3
                        --------------------------------------------------------
                        No outer SCF

 PW_GRID| Information for grid number                                          1
 PW_GRID| Cutoff [a.u.]                                                    800.0
 PW_GRID| spherical cutoff:                                                   NO
 PW_GRID|   Bounds   1           -150     149                Points:         300
 PW_GRID|   Bounds   2           -187     187                Points:         375
 PW_GRID|   Bounds   3           -135     134                Points:         270
 PW_GRID| Volume element (a.u.^3)  0.4441E-03     Volume (a.u.^3)     13490.4539
 PW_GRID| Grid span                                                    FULLSPACE

 PW_GRID| Information for grid number                                          2
 PW_GRID| Cutoff [a.u.]                                                    400.0
 PW_GRID| spherical cutoff:                                                   NO
 PW_GRID|   Bounds   1           -108     107                Points:         216
 PW_GRID|   Bounds   2           -135     134                Points:         270
 PW_GRID|   Bounds   3            -96      95                Points:         192
 PW_GRID| Volume element (a.u.^3)  0.1205E-02     Volume (a.u.^3)     13490.4539
 PW_GRID| Grid span                                                    FULLSPACE

 PW_GRID| Information for grid number                                          3
 PW_GRID| Cutoff [a.u.]                                                    133.3
 PW_GRID| spherical cutoff:                                                   NO
 PW_GRID|   Bounds   1            -60      59                Points:         120
 PW_GRID|   Bounds   2            -75      74                Points:         150
 PW_GRID|   Bounds   3            -54      53                Points:         108
 PW_GRID| Volume element (a.u.^3)  0.6940E-02     Volume (a.u.^3)     13490.4539
 PW_GRID| Grid span                                                    FULLSPACE

 PW_GRID| Information for grid number                                          4
 PW_GRID| Cutoff [a.u.]                                                     44.4
 PW_GRID| spherical cutoff:                                                   NO
 PW_GRID|   Bounds   1            -36      35                Points:          72
 PW_GRID|   Bounds   2            -45      44                Points:          90
 PW_GRID|   Bounds   3            -32      31                Points:          64
 PW_GRID| Volume element (a.u.^3)  0.3253E-01     Volume (a.u.^3)     13490.4539
 PW_GRID| Grid span                                                    FULLSPACE

 PW_GRID| Information for grid number                                          5
 PW_GRID| Cutoff [a.u.]                                                     14.8
 PW_GRID| spherical cutoff:                                                   NO
 PW_GRID|   Bounds   1            -20      19                Points:          40
 PW_GRID|   Bounds   2            -27      26                Points:          54
 PW_GRID|   Bounds   3            -18      17                Points:          36
 PW_GRID| Volume element (a.u.^3)  0.1735         Volume (a.u.^3)     13490.4539
 PW_GRID| Grid span                                                    FULLSPACE

 POISSON| Solver                                          Martyna-Tuckerman (MT)
 POISSON| MT| Alpha                                                        7.000
 POISSON| MT| Relative cutoff                                                2.0
 POISSON| Periodicity                                                       NONE

 RS_GRID| Information for grid number                                          2
 RS_GRID|   Bounds   1           -108     107                Points:         216
 RS_GRID|   Bounds   2           -135     134                Points:         270
 RS_GRID|   Bounds   3            -96      95                Points:         192

 RS_GRID| Information for grid number                                          3
 RS_GRID|   Bounds   1            -60      59                Points:         120
 RS_GRID|   Bounds   2            -75      74                Points:         150
 RS_GRID|   Bounds   3            -54      53                Points:         108

 RS_GRID| Information for grid number                                          4
 RS_GRID|   Bounds   1            -36      35                Points:          72
 RS_GRID|   Bounds   2            -45      44                Points:          90
 RS_GRID|   Bounds   3            -32      31                Points:          64

 RS_GRID| Information for grid number                                          5
 RS_GRID|   Bounds   1            -20      19                Points:          40
 RS_GRID|   Bounds   2            -27      26                Points:          54
 RS_GRID|   Bounds   3            -18      17                Points:          36

 DISTRIBUTION OF THE PARTICLES (ROWS)
              Process row      Number of particles         Number of matrix rows
                        0                        9                            -1
                      Sum                        9                            -1

 DISTRIBUTION OF THE PARTICLES (COLUMNS)
              Process col      Number of particles      Number of matrix columns
                        0                        9                            -1
                      Sum                        9                            -1

 DISTRIBUTION OF THE NEIGHBOR LISTS
              Total number of particle pairs:                                 45
              Total number of matrix elements:                             12030
              Average number of particle pairs:                               45
              Maximum number of particle pairs:                               45
              Average number of matrix element:                            12030
              Maximum number of matrix elements:                           12030


 DISTRIBUTION OF THE OVERLAP MATRIX
              Number  of non-zero blocks:                                     45
              Percentage non-zero blocks:                                 100.00
              Average number of blocks per CPU:                               45
              Maximum number of blocks per CPU:                               45
              Average number of matrix elements per CPU:                   12040
              Maximum number of matrix elements per CPU:                   12040

 ***************************************************************************
 *** 10:41:08 ERRORL2 in                                                 ***
 *** qs_scf_initialization:qs_scf_ensure_diagonalization processor 0  :: ***
 *** err=-300 OT with ADDED_MOS/=0 not implemented                       ***
 ***************************************************************************

 DBCSR| Multiplication driver                                                SMM
 DBCSR| Multrec recursion limit                                              512
 DBCSR| Multiplication stack size                                           1000
 DBCSR| Multiplication size stacks                                             3


  **** **** ******  **  PROGRAM STARTED AT               2015-07-27 10:41:34.599
 ***** ** ***  *** **   PROGRAM STARTED ON                                tcpc18
 **    ****   ******    PROGRAM STARTED BY                               tiziano
 ***** **    ** ** **   PROGRAM PROCESS ID                                 14683
  **** **  *******  **  PROGRAM STARTED IN /data/tiziano/simulations/benchmark-t
                                           emplate/thiophene

 CP2K| version string:                                          CP2K version 2.6
 CP2K| source code revision number:                                    svn:14880
 CP2K| is freely available from                             http://www.cp2k.org/
 CP2K| Program compiled at                          Thu Feb 19 09:43:02 CET 2015
 CP2K| Program compiled on                                                tcopt5
 CP2K| Program compiled for                           Linux_gnu-4.9.2_mkl-11.2.1
 CP2K| Input file name                                        C4H4S_dft-only.inp

 GLOBAL| Force Environment number                                              1
 GLOBAL| Basis set file name                                   ../GTH_BASIS_SETS
 GLOBAL| Geminal file name                                         BASIS_GEMINAL
 GLOBAL| Potential file name                                        ../POTENTIAL
 GLOBAL| MM Potential file name                                     MM_POTENTIAL
 GLOBAL| Coordinate file name                                        ./struc.xyz
 GLOBAL| Method name                                                        CP2K
 GLOBAL| Project name                                                  thiophene
 GLOBAL| Preferred FFT library                                             FFTW3
 GLOBAL| Preferred diagonalization lib.                                       SL
 GLOBAL| Run type                                                         ENERGY
 GLOBAL| All-to-all communication in single precision                          F
 GLOBAL| FFTs using library dependent lengths                                  F
 GLOBAL| Global print level                                               MEDIUM
 GLOBAL| Total number of message passing processes                             1
 GLOBAL| Number of threads for this process                                    8
 GLOBAL| This output is from process                                           0

 MEMORY| system memory details [Kb]
 MEMORY|                        rank 0           min           max       average
 MEMORY| MemTotal             16421028      16421028      16421028      16421028
 MEMORY| MemFree               6630760       6630760       6630760       6630760
 MEMORY| Buffers                255164        255164        255164        255164
 MEMORY| Cached                4824420       4824420       4824420       4824420
 MEMORY| Slab                   351372        351372        351372        351372
 MEMORY| SReclaimable           289464        289464        289464        289464
 MEMORY| MemLikelyFree        11999808      11999808      11999808      11999808


 *** Fundamental physical constants (SI units) ***

 *** Literature: B. J. Mohr and B. N. Taylor,
 ***             CODATA recommended values of the fundamental physical
 ***             constants: 2006, Web Version 5.1
 ***             http://physics.nist.gov/constants

 Speed of light in vacuum [m/s]                             2.99792458000000E+08
 Magnetic constant or permeability of vacuum [N/A**2]       1.25663706143592E-06
 Electric constant or permittivity of vacuum [F/m]          8.85418781762039E-12
 Planck constant (h) [J*s]                                  6.62606896000000E-34
 Planck constant (h-bar) [J*s]                              1.05457162825177E-34
 Elementary charge [C]                                      1.60217648700000E-19
 Electron mass [kg]                                         9.10938215000000E-31
 Electron g factor [ ]                                     -2.00231930436220E+00
 Proton mass [kg]                                           1.67262163700000E-27
 Fine-structure constant                                    7.29735253760000E-03
 Rydberg constant [1/m]                                     1.09737315685270E+07
 Avogadro constant [1/mol]                                  6.02214179000000E+23
 Boltzmann constant [J/K]                                   1.38065040000000E-23
 Atomic mass unit [kg]                                      1.66053878200000E-27
 Bohr radius [m]                                            5.29177208590000E-11

 *** Conversion factors ***

 [u] -> [a.u.]                                              1.82288848426455E+03
 [Angstrom] -> [Bohr] = [a.u.]                              1.88972613288564E+00
 [a.u.] = [Bohr] -> [Angstrom]                              5.29177208590000E-01
 [a.u.] -> [s]                                              2.41888432650478E-17
 [a.u.] -> [fs]                                             2.41888432650478E-02
 [a.u.] -> [J]                                              4.35974393937059E-18
 [a.u.] -> [N]                                              8.23872205491840E-08
 [a.u.] -> [K]                                              3.15774647902944E+05
 [a.u.] -> [kJ/mol]                                         2.62549961709828E+03
 [a.u.] -> [kcal/mol]                                       6.27509468713739E+02
 [a.u.] -> [Pa]                                             2.94210107994716E+13
 [a.u.] -> [bar]                                            2.94210107994716E+08
 [a.u.] -> [atm]                                            2.90362800883016E+08
 [a.u.] -> [eV]                                             2.72113838565563E+01
 [a.u.] -> [Hz]                                             6.57968392072181E+15
 [a.u.] -> [1/cm] (wave numbers)                            2.19474631370540E+05
 [a.u./Bohr**2] -> [1/cm]                                   5.14048714338585E+03
 

 CELL_TOP| Volume [angstrom^3]:                                         1999.079
 CELL_TOP| Vector a [angstrom    12.029     0.000     0.000    |a| =      12.029
 CELL_TOP| Vector b [angstrom     0.000    15.133     0.000    |b| =      15.133
 CELL_TOP| Vector c [angstrom     0.000     0.000    10.982    |c| =      10.982
 CELL_TOP| Angle (b,c), alpha [degree]:                                   90.000
 CELL_TOP| Angle (a,c), beta  [degree]:                                   90.000
 CELL_TOP| Angle (a,b), gamma [degree]:                                   90.000
 CELL_TOP| Numerically orthorhombic:                                         YES

 GENERATE|  Preliminary Number of Bonds generated:                             0
 GENERATE|  Achieved consistency in connectivity generation.

 CELL| Volume [angstrom^3]:                                             1999.079
 CELL| Vector a [angstrom]:      12.029     0.000     0.000    |a| =      12.029
 CELL| Vector b [angstrom]:       0.000    15.133     0.000    |b| =      15.133
 CELL| Vector c [angstrom]:       0.000     0.000    10.982    |c| =      10.982
 CELL| Angle (b,c), alpha [degree]:                                       90.000
 CELL| Angle (a,c), beta  [degree]:                                       90.000
 CELL| Angle (a,b), gamma [degree]:                                       90.000
 CELL| Numerically orthorhombic:                                             YES

 CELL_REF| Volume [angstrom^3]:                                         1999.079
 CELL_REF| Vector a [angstrom    12.029     0.000     0.000    |a| =      12.029
 CELL_REF| Vector b [angstrom     0.000    15.133     0.000    |b| =      15.133
 CELL_REF| Vector c [angstrom     0.000     0.000    10.982    |c| =      10.982
 CELL_REF| Angle (b,c), alpha [degree]:                                   90.000
 CELL_REF| Angle (a,c), beta  [degree]:                                   90.000
 CELL_REF| Angle (a,b), gamma [degree]:                                   90.000
 CELL_REF| Numerically orthorhombic:                                         YES

 *******************************************************************************
 *******************************************************************************
 **                                                                           **
 **     #####                         ##              ##                      **
 **    ##   ##            ##          ##              ##                      **
 **   ##     ##                       ##            ######                    **
 **   ##     ##  ##   ##  ##   #####  ##  ##   ####   ##    #####    #####    **
 **   ##     ##  ##   ##  ##  ##      ## ##   ##      ##   ##   ##  ##   ##   **
 **   ##  ## ##  ##   ##  ##  ##      ####     ###    ##   ######   ######    **
 **    ##  ###   ##   ##  ##  ##      ## ##      ##   ##   ##       ##        **
 **     #######   #####   ##   #####  ##  ##  ####    ##    #####   ##        **
 **           ##                                                    ##        **
 **                                                                           **
 **                                                ... make the atoms dance   **
 **                                                                           **
 **            Copyright (C) by CP2K Developers Group (2000 - 2014)           **
 **                                                                           **
 *******************************************************************************

 DFT| Spin unrestricted (spin-polarized) Kohn-Sham calculation               UKS
 DFT| Multiplicity                                                             1
 DFT| Number of spin states                                                    2
 DFT| Charge                                                                   0
 DFT| Self-interaction correction (SIC)                     Explicit Orbital SIC
 DFT| SIC scaling parameter a                                       2.000000E-01
 DFT| SIC scaling parameter b                                       2.000000E-01
 DFT| SIC orbitals                                               ALL
 DFT| Cutoffs: density                                              1.000000E-10
 DFT|          gradient                                             1.000000E-10
 DFT|          tau                                                  1.000000E-10
 DFT|          cutoff_smoothing_range                               0.000000E+00
 DFT| XC density smoothing                                                  NONE
 DFT| XC derivatives                                                          PW
 FUNCTIONAL| ROUTINE=NEW
 FUNCTIONAL| PBE:
 FUNCTIONAL| J.P.Perdew, K.Burke, M.Ernzerhof, Phys. Rev. Letter, vol. 77, n 18,
 FUNCTIONAL|  pp. 3865-3868, (1996){spin polarized}

 QS| Method:                                                                 GPW
 QS| Density plane wave grid type                        NON-SPHERICAL FULLSPACE
 QS| Number of grid levels:                                                    4
 QS| Density cutoff [a.u.]:                                                400.0
 QS| Multi grid cutoff [a.u.]: 1) grid level                               400.0
 QS|                           2) grid level                               133.3
 QS|                           3) grid level                                44.4
 QS|                           4) grid level                                14.8
 QS| Grid level progression factor:                                          3.0
 QS| Relative density cutoff [a.u.]:                                        30.0
 QS| Consistent realspace mapping and integration 
 QS| Interaction thresholds: eps_pgf_orb:                                1.0E-30
 QS|                         eps_filter_matrix:                          0.0E+00
 QS|                         eps_core_charge:                            1.0E-17
 QS|                         eps_rho_gspace:                             1.0E-15
 QS|                         eps_rho_rspace:                             1.0E-15
 QS|                         eps_gvg_rspace:                             3.2E-08
 QS|                         eps_ppl:                                    1.0E-02
 QS|                         eps_ppnl:                                   3.2E-10


 ATOMIC KIND INFORMATION

  1. Atomic kind: S                                     Number of atoms:       1

     Orbital Basis Set                                                 TZV2P-GTH

       Number of orbital shell sets:                                           2
       Number of orbital shells:                                               8
       Number of primitive Cartesian functions:                                7
       Number of Cartesian basis functions:                                   24
       Number of spherical basis functions:                                   22
       Norm type:                                                              2

       Normalised Cartesian orbitals:

                        Set   Shell   Orbital            Exponent    Coefficient

                          1       1    3s                2.977594      -0.110522
                                                         2.019087       0.494350
                                                         0.643941      -0.174361
                                                         0.250199      -0.187210
                                                         0.089165      -0.017679

                          1       2    4s                2.977594       0.000000
                                                         2.019087       0.000000
                                                         0.643941       0.000000
                                                         0.250199       0.252130
                                                         0.089165       0.000000

                          1       3    5s                2.977594       0.000000
                                                         2.019087       0.000000
                                                         0.643941       0.000000
                                                         0.250199       0.000000
                                                         0.089165       0.116294

                          1       4    4px               2.977594       0.291303
                                                         2.019087      -0.079637
                                                         0.643941      -0.284474
                                                         0.250199      -0.129687
                                                         0.089165      -0.019473
                          1       4    4py               2.977594       0.291303
                                                         2.019087      -0.079637
                                                         0.643941      -0.284474
                                                         0.250199      -0.129687
                                                         0.089165      -0.019473
                          1       4    4pz               2.977594       0.291303
                                                         2.019087      -0.079637
                                                         0.643941      -0.284474
                                                         0.250199      -0.129687
                                                         0.089165      -0.019473

                          1       5    5px               2.977594       0.000000
                                                         2.019087       0.000000
                                                         0.643941       0.000000
                                                         0.250199       0.252230
                                                         0.089165       0.000000
                          1       5    5py               2.977594       0.000000
                                                         2.019087       0.000000
                                                         0.643941       0.000000
                                                         0.250199       0.252230
                                                         0.089165       0.000000
                          1       5    5pz               2.977594       0.000000
                                                         2.019087       0.000000
                                                         0.643941       0.000000
                                                         0.250199       0.252230
                                                         0.089165       0.000000

                          1       6    6px               2.977594       0.000000
                                                         2.019087       0.000000
                                                         0.643941       0.000000
                                                         0.250199       0.000000
                                                         0.089165       0.069452
                          1       6    6py               2.977594       0.000000
                                                         2.019087       0.000000
                                                         0.643941       0.000000
                                                         0.250199       0.000000
                                                         0.089165       0.069452
                          1       6    6pz               2.977594       0.000000
                                                         2.019087       0.000000
                                                         0.643941       0.000000
                                                         0.250199       0.000000
                                                         0.089165       0.069452

                          2       1    3dx2              0.819000       1.160530
                                                         0.269000       0.000000
                          2       1    3dxy              0.819000       2.010097
                                                         0.269000       0.000000
                          2       1    3dxz              0.819000       2.010097
                                                         0.269000       0.000000
                          2       1    3dy2              0.819000       1.160530
                                                         0.269000       0.000000
                          2       1    3dyz              0.819000       2.010097
                                                         0.269000       0.000000
                          2       1    3dz2              0.819000       1.160530
                                                         0.269000       0.000000

                          2       2    4dx2              0.819000       0.000000
                                                         0.269000       0.165377
                          2       2    4dxy              0.819000       0.000000
                                                         0.269000       0.286442
                          2       2    4dxz              0.819000       0.000000
                                                         0.269000       0.286442
                          2       2    4dy2              0.819000       0.000000
                                                         0.269000       0.165377
                          2       2    4dyz              0.819000       0.000000
                                                         0.269000       0.286442
                          2       2    4dz2              0.819000       0.000000
                                                         0.269000       0.165377

     Potential information for                                           GTH-PBE

       Description:                       Goedecker-Teter-Hutter pseudopotential
                                           Goedecker et al., PRB 54, 1703 (1996)
                                          Hartwigsen et al., PRB 58, 3641 (1998)
                                                      Krack, TCA 114, 145 (2005)

       Gaussian exponent of the core charge distribution:               2.834467
       Electronic configuration (s p d ...):                               2   4

       Parameters of the local part of the GTH pseudopotential:

                          rloc        C1          C2          C3          C4
                        0.420000   -5.986260

       Parameters of the non-local part of the GTH pseudopotential:

                   l      r(l)      h(i,j,l)

                   0    0.364820   13.143544   -4.241830
                                   -4.241830    5.476180
                   1    0.409480    3.700891

  2. Atomic kind: C                                     Number of atoms:       4

     Orbital Basis Set                                                 TZV2P-GTH

       Number of orbital shell sets:                                           2
       Number of orbital shells:                                               8
       Number of primitive Cartesian functions:                                7
       Number of Cartesian basis functions:                                   24
       Number of spherical basis functions:                                   22
       Norm type:                                                              2

       Normalised Cartesian orbitals:

                        Set   Shell   Orbital            Exponent    Coefficient

                          1       1    2s                5.368566       0.245056
                                                         1.983069       0.124102
                                                         0.697835      -0.198350
                                                         0.243097      -0.156359
                                                         0.081287      -0.018192

                          1       2    3s                5.368566       0.000000
                                                         1.983069       0.000000
                                                         0.697835       0.000000
                                                         0.243097       0.246743
                                                         0.081287       0.000000

                          1       3    4s                5.368566       0.000000
                                                         1.983069       0.000000
                                                         0.697835       0.000000
                                                         0.243097       0.000000
                                                         0.081287       0.108499

                          1       4    3px               5.368566      -0.595193
                                                         1.983069      -0.567909
                                                         0.697835      -0.325466
                                                         0.243097      -0.105296
                                                         0.081287      -0.015205
                          1       4    3py               5.368566      -0.595193
                                                         1.983069      -0.567909
                                                         0.697835      -0.325466
                                                         0.243097      -0.105296
                                                         0.081287      -0.015205
                          1       4    3pz               5.368566      -0.595193
                                                         1.983069      -0.567909
                                                         0.697835      -0.325466
                                                         0.243097      -0.105296
                                                         0.081287      -0.015205

                          1       5    4px               5.368566       0.000000
                                                         1.983069       0.000000
                                                         0.697835       0.000000
                                                         0.243097       0.243312
                                                         0.081287       0.000000
                          1       5    4py               5.368566       0.000000
                                                         1.983069       0.000000
                                                         0.697835       0.000000
                                                         0.243097       0.243312
                                                         0.081287       0.000000
                          1       5    4pz               5.368566       0.000000
                                                         1.983069       0.000000
                                                         0.697835       0.000000
                                                         0.243097       0.243312
                                                         0.081287       0.000000

                          1       6    5px               5.368566       0.000000
                                                         1.983069       0.000000
                                                         0.697835       0.000000
                                                         0.243097       0.000000
                                                         0.081287       0.061868
                          1       6    5py               5.368566       0.000000
                                                         1.983069       0.000000
                                                         0.697835       0.000000
                                                         0.243097       0.000000
                                                         0.081287       0.061868
                          1       6    5pz               5.368566       0.000000
                                                         1.983069       0.000000
                                                         0.697835       0.000000
                                                         0.243097       0.000000
                                                         0.081287       0.061868

                          2       1    3dx2              1.097000       1.935401
                                                         0.318000       0.000000
                          2       1    3dxy              1.097000       3.352214
                                                         0.318000       0.000000
                          2       1    3dxz              1.097000       3.352214
                                                         0.318000       0.000000
                          2       1    3dy2              1.097000       1.935401
                                                         0.318000       0.000000
                          2       1    3dyz              1.097000       3.352214
                                                         0.318000       0.000000
                          2       1    3dz2              1.097000       1.935401
                                                         0.318000       0.000000

                          2       2    4dx2              1.097000       0.000000
                                                         0.318000       0.221644
                          2       2    4dxy              1.097000       0.000000
                                                         0.318000       0.383899
                          2       2    4dxz              1.097000       0.000000
                                                         0.318000       0.383899
                          2       2    4dy2              1.097000       0.000000
                                                         0.318000       0.221644
                          2       2    4dyz              1.097000       0.000000
                                                         0.318000       0.383899
                          2       2    4dz2              1.097000       0.000000
                                                         0.318000       0.221644

     Potential information for                                           GTH-PBE

       Description:                       Goedecker-Teter-Hutter pseudopotential
                                           Goedecker et al., PRB 54, 1703 (1996)
                                          Hartwigsen et al., PRB 58, 3641 (1998)
                                                      Krack, TCA 114, 145 (2005)

       Gaussian exponent of the core charge distribution:               4.364419
       Electronic configuration (s p d ...):                               2   2

       Parameters of the local part of the GTH pseudopotential:

                          rloc        C1          C2          C3          C4
                        0.338471   -8.803674    1.339211

       Parameters of the non-local part of the GTH pseudopotential:

                   l      r(l)      h(i,j,l)

                   0    0.302576    9.622487
                   1    0.291507

  3. Atomic kind: H                                     Number of atoms:       4

     Orbital Basis Set                                                 TZV2P-GTH

       Number of orbital shell sets:                                           2
       Number of orbital shells:                                               5
       Number of primitive Cartesian functions:                                7
       Number of Cartesian basis functions:                                    9
       Number of spherical basis functions:                                    9
       Norm type:                                                              2

       Normalised Cartesian orbitals:

                        Set   Shell   Orbital            Exponent    Coefficient

                          1       1    1s               10.882724      -0.071340
                                                         3.096875      -0.104410
                                                         0.987452      -0.135375
                                                         0.345069      -0.133923
                                                         0.149269      -0.073092

                          1       2    2s               10.882724       0.000000
                                                         3.096875       0.000000
                                                         0.987452       0.000000
                                                         0.345069       0.320878
                                                         0.149269       0.000000

                          1       3    3s               10.882724       0.000000
                                                         3.096875       0.000000
                                                         0.987452       0.000000
                                                         0.345069       0.000000
                                                         0.149269       0.171154

                          2       1    2px               1.407000       2.184277
                                                         0.388000       0.000000
                          2       1    2py               1.407000       2.184277
                                                         0.388000       0.000000
                          2       1    2pz               1.407000       2.184277
                                                         0.388000       0.000000

                          2       2    3px               1.407000       0.000000
                                                         0.388000       0.436495
                          2       2    3py               1.407000       0.000000
                                                         0.388000       0.436495
                          2       2    3pz               1.407000       0.000000
                                                         0.388000       0.436495

     Potential information for                                           GTH-PBE

       Description:                       Goedecker-Teter-Hutter pseudopotential
                                           Goedecker et al., PRB 54, 1703 (1996)
                                          Hartwigsen et al., PRB 58, 3641 (1998)
                                                      Krack, TCA 114, 145 (2005)

       Gaussian exponent of the core charge distribution:              12.500000
       Electronic configuration (s p d ...):                                   1

       Parameters of the local part of the GTH pseudopotential:

                          rloc        C1          C2          C3          C4
                        0.200000   -4.178900    0.724463


 MOLECULE KIND INFORMATION


 All atoms are their own molecule, skipping detailed information


 TOTAL NUMBERS AND MAXIMUM NUMBERS

  Total number of            - Atomic kinds:                                   3
                             - Atoms:                                          9
                             - Shell sets:                                    18
                             - Shells:                                        60
                             - Primitive Cartesian functions:                 63
                             - Cartesian basis functions:                    156
                             - Spherical basis functions:                    146

  Maximum angular momentum of- Orbital basis functions:                        2
                             - Local part of the GTH pseudopotential:          2
                             - Non-local part of the GTH pseudopotential:      2


 MODULE QUICKSTEP:  ATOMIC COORDINATES IN angstrom

  Atom  Kind  Element       X           Y           Z          Z(eff)       Mass

       1     1 S   16    6.014635    7.566518    7.182010      6.00      32.0650
       2     2 C    6    6.014639    8.813513    5.970991      4.00      12.0107
       3     2 C    6    6.014639    6.319522    5.970991      4.00      12.0107
       4     2 C    6    6.014640    8.280266    4.702917      4.00      12.0107
       5     2 C    6    6.014640    6.852770    4.702918      4.00      12.0107
       6     3 H    1    6.014636    9.856791    6.275067      1.00       1.0079
       7     3 H    1    6.014636    5.276246    6.275068      1.00       1.0079
       8     3 H    1    6.014638    8.889342    3.799559      1.00       1.0079
       9     3 H    1    6.014638    6.243693    3.799559      1.00       1.0079




 SCF PARAMETERS         Density guess:                                   RESTART
                        --------------------------------------------------------
                        max_scf:                                             100
                        max_scf_history:                                       0
                        max_diis:                                              4
                        --------------------------------------------------------
                        eps_scf:                                        1.00E-05
                        eps_scf_history:                                0.00E+00
                        eps_diis:                                       1.00E-01
                        eps_eigval:                                     1.00E-05
                        --------------------------------------------------------
                        level_shift [a.u.]:                                 0.00
                        --------------------------------------------------------
                        No outer SCF

[...]



 ALPHA MO EIGENVALUES AND MO OCCUPATION NUMBERS AFTER SCF STEP 98

# MO index          MO eigenvalue [a.u.]            MO occupation
         1                      0.000000                 1.000000
         2                      0.000000                 1.000000
         3                      0.000000                 1.000000
         4                      0.000000                 1.000000
         5                      0.000000                 1.000000
         6                      0.000000                 1.000000
         7                      0.000000                 1.000000
         8                      0.000000                 1.000000
         9                      0.000000                 1.000000
        10                      0.000000                 1.000000
        11                      0.000000                 1.000000
        12                      0.000000                 1.000000
        13                      0.000000                 1.000000
# Sum                                                   13.000000

  Fermi energy:                 0.000000



 BETA MO EIGENVALUES AND MO OCCUPATION NUMBERS AFTER SCF STEP 98

# MO index          MO eigenvalue [a.u.]            MO occupation
         1                      0.000000                 1.000000
         2                      0.000000                 1.000000
         3                      0.000000                 1.000000
         4                      0.000000                 1.000000
         5                      0.000000                 1.000000
         6                      0.000000                 1.000000
         7                      0.000000                 1.000000
         8                      0.000000                 1.000000
         9                      0.000000                 1.000000
        10                      0.000000                 1.000000
        11                      0.000000                 1.000000
        12                      0.000000                 1.000000
        13                      0.000000                 1.000000
# Sum                                                   13.000000

  Fermi energy:                 0.000000

    99 OT CG       0.98E+00  215.1     0.00014877       -35.2546817081 -4.03E-05

  Trace(PS):                                   25.9999999999
  Electronic density on regular grids:        -25.9999999999        0.0000000001
  Core density on regular grids:               26.0000000000       -0.0000000000
  Total charge density on r-space grids:        0.0000000001
  Total charge density g-space grids:           0.0000000001



 ALPHA MO EIGENVALUES AND MO OCCUPATION NUMBERS AFTER SCF STEP 99

# MO index          MO eigenvalue [a.u.]            MO occupation
         1                      0.000000                 1.000000
         2                      0.000000                 1.000000
         3                      0.000000                 1.000000
         4                      0.000000                 1.000000
         5                      0.000000                 1.000000
         6                      0.000000                 1.000000
         7                      0.000000                 1.000000
         8                      0.000000                 1.000000
         9                      0.000000                 1.000000
        10                      0.000000                 1.000000
        11                      0.000000                 1.000000
        12                      0.000000                 1.000000
        13                      0.000000                 1.000000
# Sum                                                   13.000000

  Fermi energy:                 0.000000



 BETA MO EIGENVALUES AND MO OCCUPATION NUMBERS AFTER SCF STEP 99

# MO index          MO eigenvalue [a.u.]            MO occupation
         1                      0.000000                 1.000000
         2                      0.000000                 1.000000
         3                      0.000000                 1.000000
         4                      0.000000                 1.000000
         5                      0.000000                 1.000000
         6                      0.000000                 1.000000
         7                      0.000000                 1.000000
         8                      0.000000                 1.000000
         9                      0.000000                 1.000000
        10                      0.000000                 1.000000
        11                      0.000000                 1.000000
        12                      0.000000                 1.000000
        13                      0.000000                 1.000000
# Sum                                                   13.000000

  Fermi energy:                 0.000000

   100 OT LS       0.79E+00  108.6                      -35.2547130153

  *** SCF run NOT converged ***


  Electronic density on regular grids:        -25.9999999999        0.0000000001
  Core density on regular grids:               26.0000000000       -0.0000000000
  Total charge density on r-space grids:        0.0000000001
  Total charge density g-space grids:           0.0000000001

  Overlap energy of the core charge distribution:               0.00000212943240
  Self energy of the core charge distribution:                -83.16148112315653
  Core Hamiltonian energy:                                     23.93513620017810
  Hartree energy:                                              32.84256543351574
  Exchange-correlation energy:                                 -8.87093565527683

  Total energy:                                               -35.25471301530713


 ALPHA MO EIGENVALUES AND MO OCCUPATION NUMBERS

# MO index          MO eigenvalue [a.u.]            MO occupation
         1                      0.000000                 1.000000
         2                      0.000000                 1.000000
         3                      0.000000                 1.000000
         4                      0.000000                 1.000000
         5                      0.000000                 1.000000
         6                      0.000000                 1.000000
         7                      0.000000                 1.000000
         8                      0.000000                 1.000000
         9                      0.000000                 1.000000
        10                      0.000000                 1.000000
        11                      0.000000                 1.000000
        12                      0.000000                 1.000000
        13                      0.000000                 1.000000
# Sum                                                   13.000000

  Fermi energy:                 0.000000



 BETA MO EIGENVALUES AND MO OCCUPATION NUMBERS

# MO index          MO eigenvalue [a.u.]            MO occupation
         1                      0.000000                 1.000000
         2                      0.000000                 1.000000
         3                      0.000000                 1.000000
         4                      0.000000                 1.000000
         5                      0.000000                 1.000000
         6                      0.000000                 1.000000
         7                      0.000000                 1.000000
         8                      0.000000                 1.000000
         9                      0.000000                 1.000000
        10                      0.000000                 1.000000
        11                      0.000000                 1.000000
        12                      0.000000                 1.000000
        13                      0.000000                 1.000000
# Sum                                                   13.000000

  Fermi energy:                 0.000000


  Integrated absolute spin density  :                               0.0000000012
  Ideal and single determinant S**2 :                    0.000000       0.000000


 MULLIKEN POPULATION ANALYSIS

 #  Atom  Element  Kind  Atomic population (alpha,beta)   Net charge  Spin moment
       1     S        1          2.839652     2.839652     0.320696    -0.000000
       2     C        2          2.058604     2.058604    -0.117208     0.000000
       3     C        2          2.055554     2.055554    -0.111108     0.000000
       4     C        2          2.059807     2.059807    -0.119615    -0.000000
       5     C        2          2.064281     2.064281    -0.128563     0.000000
       6     H        3          0.485546     0.485546     0.028909     0.000000
       7     H        3          0.485193     0.485193     0.029613    -0.000000
       8     H        3          0.475842     0.475842     0.048316    -0.000000
       9     H        3          0.475520     0.475520     0.048960    -0.000000
 # Total charge and spin        13.000000    13.000000     0.000000     0.000000


 !-----------------------------------------------------------------------------!
                           Hirschfeld Charges

  #Atom  Element  Kind  Ref Charge     Population        Spin moment  Net charge
      1       S      1       6.000    2.858   2.858            0.000       0.283
      2       C      2       4.000    2.082   2.082            0.000      -0.164
      3       C      2       4.000    2.082   2.082            0.000      -0.165
      4       C      2       4.000    2.035   2.035            0.000      -0.069
      5       C      2       4.000    2.035   2.035            0.000      -0.069
      6       H      3       1.000    0.478   0.478           -0.000       0.045
      7       H      3       1.000    0.478   0.478           -0.000       0.045
      8       H      3       1.000    0.476   0.476            0.000       0.047
      9       H      3       1.000    0.477   0.477            0.000       0.047

  Total Charge                                                             0.000
 !-----------------------------------------------------------------------------!

 ENERGY| Total FORCE_EVAL ( QS ) energy (a.u.):              -35.254713015307132


 -------------------------------------------------------------------------------
 -                                                                             -
 -                                DBCSR STATISTICS                             -
 -                                                                             -
 -------------------------------------------------------------------------------
 COUNTER                                      CPU                  ACC      ACC%
 number of processed stacks                 70968                    0       0.0
 matmuls inhomo. stacks                         0                    0       0.0
 matmuls total                             265365                    0       0.0
 flops   9 x    1 x    9                  3369600                    0       0.0
 flops   9 x    9 x    1                  4212000                    0       0.0
 flops   9 x    9 x   13                  4254120                    0       0.0
 flops  18 x   13 x   13                  9710064                    0       0.0
 flops   9 x   13 x    9                 10277280                    0       0.0
 flops  22 x    9 x    1                 10296000                    0       0.0
 flops  22 x    1 x    9                 10296000                    0       0.0
 flops   9 x   22 x    1                 10296000                    0       0.0
 flops   9 x    1 x   22                 10296000                    0       0.0
 flops  22 x    9 x   13                 10398960                    0       0.0
 flops   9 x   22 x   13                 10398960                    0       0.0
 flops  13 x   13 x   13                 10422568                    0       0.0
 flops  18 x   13 x  146                 13938912                    0       0.0
 flops  13 x   13 x  146                 29510104                    0       0.0
 flops  22 x   13 x   13                 29669640                    0       0.0
 flops  22 x   13 x    9                 31402800                    0       0.0
 flops   9 x   13 x   22                 31402800                    0       0.0
 flops  22 x    1 x   22                 31460000                    0       0.0
 flops  22 x   22 x    1                 37752000                    0       0.0
 flops  22 x   22 x   13                 38129520                    0       0.0
 flops  22 x   13 x  146                 42591120                    0       0.0
 flops  22 x   13 x   22                 95953000                    0       0.0
 flops total                            486037448                    0       0.0
 marketing flops                        583193416
 -------------------------------------------------------------------------------

 -------------------------------------------------------------------------------
 ----                             MULTIGRID INFO                            ----
 -------------------------------------------------------------------------------
 count for grid        1:           7851          cutoff [a.u.]          400.00
 count for grid        2:          12850          cutoff [a.u.]          133.33
 count for grid        3:           8443          cutoff [a.u.]           44.44
 count for grid        4:           4363          cutoff [a.u.]           14.81
 total gridlevel count  :          33507

 -------------------------------------------------------------------------------
 -                                                                             -
 -                           R E F E R E N C E S                               -
 -                                                                             -
 -------------------------------------------------------------------------------
 
 CP2K version 2.6, the CP2K developers group (2014).
 CP2K is freely available from http://www.cp2k.org/ .

 Borstnik, U; VandeVondele, J; Weber, V; Hutter, J. 
 PARALLEL COMPUTING, 40 (5-6), 47-58 (2014). 
 Sparse matrix multiplication: The distributed block-compressed sparse
 row library.
 http://dx.doi.org/10.1016/j.parco.2014.03.012


 Hutter, J; Iannuzzi, M; Schiffmann, F; VandeVondele, J. 
 WILEY INTERDISCIPLINARY REVIEWS-COMPUTATIONAL MOLECULAR SCIENCE, 4 (1), 15-25 (2014). 
 CP2K: atomistic simulations of condensed matter systems.
 http://dx.doi.org/10.1002/wcms.1159


 Krack, M. 
 THEORETICAL CHEMISTRY ACCOUNTS, 114 (1-3), 145-152 (2005). 
 Pseudopotentials for H to Kr optimized for gradient-corrected
 exchange-correlation functionals.
 http://dx.doi.org/10.1007/s00214-005-0655-y


 VandeVondele, J; Krack, M; Mohamed, F; Parrinello, M; Chassaing, T;
 Hutter, J. COMPUTER PHYSICS COMMUNICATIONS, 167 (2), 103-128 (2005). 
 QUICKSTEP: Fast and accurate density functional calculations using a
 mixed Gaussian and plane waves approach.
 http://dx.doi.org/10.1016/j.cpc.2004.12.014


 Frigo, M; Johnson, SG. 
 PROCEEDINGS OF THE IEEE, 93 (2), 216-231 (2005). 
 The design and implementation of FFTW3.
 http://dx.doi.org/10.1109/JPROC.2004.840301


 VandeVondele, J; Sprik, M. 
 PHYSICAL CHEMISTRY CHEMICAL PHYSICS, 7 (7), 1363-1367 (2005). 
 A molecular dynamics study of the hydroxyl radical in solution applying
 self-interaction-corrected density functional methods.
 http://dx.doi.org/10.1039/b501603g


 VandeVondele, J; Hutter, J. 
 JOURNAL OF CHEMICAL PHYSICS, 118 (10), 4365-4369 (2003). 
 An efficient orbital transformation method for electronic structure
 calculations.
 http://dx.doi.org/10.1063/1.1543154


 Martyna, GJ; Tuckerman, ME. 
 JOURNAL OF CHEMICAL PHYSICS, 110 (6), 2810-2821 (1999). 
 A reciprocal space based method for treating long range interactions in
 ab initio and force-field-based calculations in clusters.
 http://dx.doi.org/10.1063/1.477923


 Hartwigsen, C; Goedecker, S; Hutter, J. 
 PHYSICAL REVIEW B, 58 (7), 3641-3662 (1998). 
 Relativistic separable dual-space Gaussian pseudopotentials from H to Rn.
 http://dx.doi.org/10.1103/PhysRevB.58.3641


 Lippert, G; Hutter, J; Parrinello, M. 
 MOLECULAR PHYSICS, 92 (3), 477-487 (1997). 
 A hybrid Gaussian and plane wave density functional scheme.
 http://dx.doi.org/10.1080/002689797170220


 Perdew, JP; Burke, K; Ernzerhof, M. 
 PHYSICAL REVIEW LETTERS, 77 (18), 3865-3868 (1996). 
 Generalized gradient approximation made simple.
 http://dx.doi.org/10.1103/PhysRevLett.77.3865


 Goedecker, S; Teter, M; Hutter, J. 
 PHYSICAL REVIEW B, 54 (3), 1703-1710 (1996). 
 Separable dual-space Gaussian pseudopotentials.
 http://dx.doi.org/10.1103/PhysRevB.54.1703


 -------------------------------------------------------------------------------
 -                                                                             -
 -                                T I M I N G                                  -
 -                                                                             -
 -------------------------------------------------------------------------------
 SUBROUTINE                       CALLS  ASD         SELF TIME        TOTAL TIME
                                MAXIMUM       AVERAGE  MAXIMUM  AVERAGE  MAXIMUM
 CP2K                                 1  1.0     0.02     0.02 17062.06 17062.06
 qs_energies_scf                      1  2.0     0.00     0.00 17055.09 17055.09
 scf_env_do_scf                       1  3.0     0.00     0.00 17051.99 17051.99
 qs_ks_update_qs_env                101  5.0     0.00     0.00 16835.49 16835.49
 rebuild_ks_matrix                  100  6.0     0.00     0.00 16835.49 16835.49
 qs_ks_build_kohn_sham_matrix       100  7.0     0.01     0.01 16835.49 16835.49
 scf_env_do_scf_inner_loop          100  4.0     0.02     0.02 16817.01 16817.01
 sic_explicit_orbitals              100  8.0    20.52    20.52 16265.91 16265.91
 fft_wrap_pw1pw2                  47962 10.7     0.77     0.77 11763.94 11763.94
 fft_wrap_pw1pw2_400              35355 11.6   781.13   781.13 11506.74 11506.74
 xc_vxc_pw_create                  1350  9.0   294.24   294.24  8526.55  8526.55
 xc_rho_set_and_dset_create        2700 10.0   210.57   210.57  7910.57  7910.57
 fft3d_s                          47963 12.7  7639.91  7639.91  7640.03  7640.03
 xc_exc_calc                       1350  9.0    47.50    47.50  3962.16  3962.16
 calculate_rho_elec                2802  8.8   772.29   772.29  2989.85  2989.85
 pw_scatter_s                     27252 12.8  2350.21  2350.21  2350.21  2350.21
 density_rs2pw                     2802  9.8     0.09     0.09  2186.47  2186.47
 xc_functional_eval                2700 11.0     0.03     0.03  1218.18  1218.18
 pbe_lsd_eval                      2700 12.0  1218.15  1218.15  1218.15  1218.15
 pw_derive                        24300 10.7  1139.44  1139.44  1139.44  1139.44
 pw_gather_s                      20710 12.5   963.70   963.70   963.70   963.70
 pw_copy                          32701 10.8   653.62   653.62   653.62   653.62
 integrate_v_rspace                1400  9.0    29.39    29.39   641.24   641.24
 potential_pw2rs                   1400 10.0     2.68     2.68   601.71   601.71
 qs_vxc_create                      100  8.0     0.00     0.00   479.78   479.78
 pw_poisson_solve                  2700  9.0   280.03   280.03   417.54   417.54
 pw_axpy                          27610 10.3   408.80   408.80   408.80   408.80
 -------------------------------------------------------------------------------

  **** **** ******  **  PROGRAM ENDED AT                 2015-07-27 15:25:56.690
 ***** ** ***  *** **   PROGRAM RAN ON                                    tcpc18
 **    ****   ******    PROGRAM RAN BY                                   tiziano
 ***** **    ** ** **   PROGRAM PROCESS ID                                 14683
  **** **  *******  **  PROGRAM STOPPED IN /data/tiziano/simulations/benchmark-t
                                           emplate/thiophene
